<?xml version="1.0" encoding="UTF-8"?>
<!-- SUMO FCD trace for 7 vehicles - Generated for NS-3 Proven Data Augmentation -->
<fcd-export xmlns:xsi="http://www.w3.org/2001/XMLSchema-instance" xsi:noNamespaceSchemaLocation="http://sumo.dlr.de/xsd/fcd_file.xsd">

    <!-- Timestep 0.00s -->
    <timestep time="0.00">
        <vehicle id="veh_962" x="10.00" y="49.36" speed="14.38" type="passenger"/>
        <vehicle id="veh_971" x="30.00" y="51.08" speed="15.86" type="passenger"/>
        <vehicle id="veh_980" x="50.00" y="47.00" speed="13.80" type="passenger"/>
        <vehicle id="veh_989" x="70.00" y="52.00" speed="16.27" type="passenger"/>
        <vehicle id="veh_998" x="90.00" y="49.91" speed="16.79" type="passenger"/>
        <vehicle id="veh_1007" x="110.00" y="50.34" speed="15.08" type="passenger"/>
        <vehicle id="veh_1016" x="130.00" y="52.41" speed="15.47" type="passenger"/>
    </timestep>

    <!-- Timestep 0.10s -->
    <timestep time="0.10">
        <vehicle id="veh_962" x="11.50" y="49.38" speed="14.41" type="passenger"/>
        <vehicle id="veh_971" x="31.65" y="51.07" speed="15.83" type="passenger"/>
        <vehicle id="veh_980" x="51.45" y="47.00" speed="13.79" type="passenger"/>
        <vehicle id="veh_989" x="71.55" y="52.00" speed="16.27" type="passenger"/>
        <vehicle id="veh_998" x="91.60" y="49.90" speed="16.78" type="passenger"/>
        <vehicle id="veh_1007" x="111.52" y="50.31" speed="15.04" type="passenger"/>
        <vehicle id="veh_1016" x="131.48" y="52.40" speed="15.46" type="passenger"/>
    </timestep>

    <!-- Timestep 0.20s -->
    <timestep time="0.20">
        <vehicle id="veh_962" x="13.00" y="49.40" speed="14.43" type="passenger"/>
        <vehicle id="veh_971" x="33.30" y="51.06" speed="15.81" type="passenger"/>
        <vehicle id="veh_980" x="52.90" y="47.00" speed="13.78" type="passenger"/>
        <vehicle id="veh_989" x="73.10" y="52.00" speed="16.27" type="passenger"/>
        <vehicle id="veh_998" x="93.20" y="49.88" speed="16.77" type="passenger"/>
        <vehicle id="veh_1007" x="113.04" y="50.28" speed="15.01" type="passenger"/>
        <vehicle id="veh_1016" x="132.96" y="52.38" speed="15.44" type="passenger"/>
    </timestep>

    <!-- Timestep 0.30s -->
    <timestep time="0.30">
        <vehicle id="veh_962" x="14.50" y="49.43" speed="14.45" type="passenger"/>
        <vehicle id="veh_971" x="34.95" y="51.05" speed="15.79" type="passenger"/>
        <vehicle id="veh_980" x="54.35" y="47.00" speed="13.78" type="passenger"/>
        <vehicle id="veh_989" x="74.65" y="51.99" speed="16.26" type="passenger"/>
        <vehicle id="veh_998" x="94.80" y="49.87" speed="16.76" type="passenger"/>
        <vehicle id="veh_1007" x="114.56" y="50.25" speed="14.97" type="passenger"/>
        <vehicle id="veh_1016" x="134.44" y="52.37" speed="15.42" type="passenger"/>
    </timestep>

    <!-- Timestep 0.40s -->
    <timestep time="0.40">
        <vehicle id="veh_962" x="16.00" y="49.45" speed="14.48" type="passenger"/>
        <vehicle id="veh_971" x="36.60" y="51.04" speed="15.77" type="passenger"/>
        <vehicle id="veh_980" x="55.80" y="47.01" speed="13.78" type="passenger"/>
        <vehicle id="veh_989" x="76.20" y="51.99" speed="16.26" type="passenger"/>
        <vehicle id="veh_998" x="96.40" y="49.85" speed="16.75" type="passenger"/>
        <vehicle id="veh_1007" x="116.08" y="50.22" speed="14.93" type="passenger"/>
        <vehicle id="veh_1016" x="135.92" y="52.35" speed="15.40" type="passenger"/>
    </timestep>

    <!-- Timestep 0.50s -->
    <timestep time="0.50">
        <vehicle id="veh_962" x="17.50" y="49.48" speed="14.51" type="passenger"/>
        <vehicle id="veh_971" x="38.25" y="51.03" speed="15.75" type="passenger"/>
        <vehicle id="veh_980" x="57.25" y="47.01" speed="13.78" type="passenger"/>
        <vehicle id="veh_989" x="77.75" y="51.99" speed="16.25" type="passenger"/>
        <vehicle id="veh_998" x="98.00" y="49.84" speed="16.73" type="passenger"/>
        <vehicle id="veh_1007" x="117.60" y="50.20" speed="14.90" type="passenger"/>
        <vehicle id="veh_1016" x="137.40" y="52.34" speed="15.38" type="passenger"/>
    </timestep>

    <!-- Timestep 0.60s -->
    <timestep time="0.60">
        <vehicle id="veh_962" x="19.00" y="49.50" speed="14.54" type="passenger"/>
        <vehicle id="veh_971" x="39.90" y="51.03" speed="15.73" type="passenger"/>
        <vehicle id="veh_980" x="58.70" y="47.02" speed="13.78" type="passenger"/>
        <vehicle id="veh_989" x="79.30" y="51.98" speed="16.24" type="passenger"/>
        <vehicle id="veh_998" x="99.60" y="49.82" speed="16.72" type="passenger"/>
        <vehicle id="veh_1007" x="119.12" y="50.17" speed="14.86" type="passenger"/>
        <vehicle id="veh_1016" x="138.88" y="52.32" speed="15.35" type="passenger"/>
    </timestep>

    <!-- Timestep 0.70s -->
    <timestep time="0.70">
        <vehicle id="veh_962" x="20.50" y="49.53" speed="14.57" type="passenger"/>
        <vehicle id="veh_971" x="41.55" y="51.02" speed="15.72" type="passenger"/>
        <vehicle id="veh_980" x="60.15" y="47.02" speed="13.78" type="passenger"/>
        <vehicle id="veh_989" x="80.85" y="51.98" speed="16.22" type="passenger"/>
        <vehicle id="veh_998" x="101.20" y="49.80" speed="16.70" type="passenger"/>
        <vehicle id="veh_1007" x="120.64" y="50.14" speed="14.83" type="passenger"/>
        <vehicle id="veh_1016" x="140.36" y="52.30" speed="15.33" type="passenger"/>
    </timestep>

    <!-- Timestep 0.80s -->
    <timestep time="0.80">
        <vehicle id="veh_962" x="22.00" y="49.56" speed="14.60" type="passenger"/>
        <vehicle id="veh_971" x="43.20" y="51.01" speed="15.71" type="passenger"/>
        <vehicle id="veh_980" x="61.60" y="47.03" speed="13.78" type="passenger"/>
        <vehicle id="veh_989" x="82.40" y="51.97" speed="16.21" type="passenger"/>
        <vehicle id="veh_998" x="102.80" y="49.78" speed="16.68" type="passenger"/>
        <vehicle id="veh_1007" x="122.16" y="50.11" speed="14.80" type="passenger"/>
        <vehicle id="veh_1016" x="141.84" y="52.28" speed="15.30" type="passenger"/>
    </timestep>

    <!-- Timestep 0.90s -->
    <timestep time="0.90">
        <vehicle id="veh_962" x="23.50" y="49.58" speed="14.63" type="passenger"/>
        <vehicle id="veh_971" x="44.85" y="51.01" speed="15.70" type="passenger"/>
        <vehicle id="veh_980" x="63.05" y="47.04" speed="13.79" type="passenger"/>
        <vehicle id="veh_989" x="83.95" y="51.96" speed="16.19" type="passenger"/>
        <vehicle id="veh_998" x="104.40" y="49.77" speed="16.65" type="passenger"/>
        <vehicle id="veh_1007" x="123.68" y="50.08" speed="14.77" type="passenger"/>
        <vehicle id="veh_1016" x="143.32" y="52.27" speed="15.27" type="passenger"/>
    </timestep>

    <!-- Timestep 1.00s -->
    <timestep time="1.00">
        <vehicle id="veh_962" x="25.00" y="49.61" speed="14.66" type="passenger"/>
        <vehicle id="veh_971" x="46.50" y="51.01" speed="15.69" type="passenger"/>
        <vehicle id="veh_980" x="64.50" y="47.05" speed="13.80" type="passenger"/>
        <vehicle id="veh_989" x="85.50" y="51.95" speed="16.18" type="passenger"/>
        <vehicle id="veh_998" x="106.00" y="49.75" speed="16.63" type="passenger"/>
        <vehicle id="veh_1007" x="125.20" y="50.06" speed="14.73" type="passenger"/>
        <vehicle id="veh_1016" x="144.80" y="52.25" speed="15.24" type="passenger"/>
    </timestep>

    <!-- Timestep 1.10s -->
    <timestep time="1.10">
        <vehicle id="veh_962" x="26.50" y="49.64" speed="14.70" type="passenger"/>
        <vehicle id="veh_971" x="48.15" y="51.00" speed="15.68" type="passenger"/>
        <vehicle id="veh_980" x="65.95" y="47.06" speed="13.81" type="passenger"/>
        <vehicle id="veh_989" x="87.05" y="51.94" speed="16.16" type="passenger"/>
        <vehicle id="veh_998" x="107.60" y="49.73" speed="16.60" type="passenger"/>
        <vehicle id="veh_1007" x="126.72" y="50.03" speed="14.71" type="passenger"/>
        <vehicle id="veh_1016" x="146.28" y="52.23" speed="15.21" type="passenger"/>
    </timestep>

    <!-- Timestep 1.20s -->
    <timestep time="1.20">
        <vehicle id="veh_962" x="28.00" y="49.67" speed="14.73" type="passenger"/>
        <vehicle id="veh_971" x="49.80" y="51.00" speed="15.68" type="passenger"/>
        <vehicle id="veh_980" x="67.40" y="47.07" speed="13.82" type="passenger"/>
        <vehicle id="veh_989" x="88.60" y="51.93" speed="16.13" type="passenger"/>
        <vehicle id="veh_998" x="109.20" y="49.70" speed="16.58" type="passenger"/>
        <vehicle id="veh_1007" x="128.24" y="50.00" speed="14.68" type="passenger"/>
        <vehicle id="veh_1016" x="147.76" y="52.20" speed="15.18" type="passenger"/>
    </timestep>

    <!-- Timestep 1.30s -->
    <timestep time="1.30">
        <vehicle id="veh_962" x="29.50" y="49.70" speed="14.77" type="passenger"/>
        <vehicle id="veh_971" x="51.45" y="51.00" speed="15.68" type="passenger"/>
        <vehicle id="veh_980" x="68.85" y="47.08" speed="13.83" type="passenger"/>
        <vehicle id="veh_989" x="90.15" y="51.92" speed="16.11" type="passenger"/>
        <vehicle id="veh_998" x="110.80" y="49.68" speed="16.55" type="passenger"/>
        <vehicle id="veh_1007" x="129.76" y="49.98" speed="14.65" type="passenger"/>
        <vehicle id="veh_1016" x="149.24" y="52.18" speed="15.15" type="passenger"/>
    </timestep>

    <!-- Timestep 1.40s -->
    <timestep time="1.40">
        <vehicle id="veh_962" x="31.00" y="49.72" speed="14.80" type="passenger"/>
        <vehicle id="veh_971" x="53.10" y="51.00" speed="15.68" type="passenger"/>
        <vehicle id="veh_980" x="70.30" y="47.09" speed="13.84" type="passenger"/>
        <vehicle id="veh_989" x="91.70" y="51.91" speed="16.09" type="passenger"/>
        <vehicle id="veh_998" x="112.40" y="49.66" speed="16.52" type="passenger"/>
        <vehicle id="veh_1007" x="131.28" y="49.95" speed="14.62" type="passenger"/>
        <vehicle id="veh_1016" x="150.72" y="52.16" speed="15.12" type="passenger"/>
    </timestep>

    <!-- Timestep 1.50s -->
    <timestep time="1.50">
        <vehicle id="veh_962" x="32.50" y="49.75" speed="14.84" type="passenger"/>
        <vehicle id="veh_971" x="54.75" y="51.00" speed="15.68" type="passenger"/>
        <vehicle id="veh_980" x="71.75" y="47.10" speed="13.86" type="passenger"/>
        <vehicle id="veh_989" x="93.25" y="51.89" speed="16.06" type="passenger"/>
        <vehicle id="veh_998" x="114.00" y="49.64" speed="16.49" type="passenger"/>
        <vehicle id="veh_1007" x="132.80" y="49.93" speed="14.60" type="passenger"/>
        <vehicle id="veh_1016" x="152.20" y="52.14" speed="15.08" type="passenger"/>
    </timestep>

    <!-- Timestep 1.60s -->
    <timestep time="1.60">
        <vehicle id="veh_962" x="34.00" y="49.78" speed="14.88" type="passenger"/>
        <vehicle id="veh_971" x="56.40" y="51.00" speed="15.68" type="passenger"/>
        <vehicle id="veh_980" x="73.20" y="47.12" speed="13.88" type="passenger"/>
        <vehicle id="veh_989" x="94.80" y="51.88" speed="16.03" type="passenger"/>
        <vehicle id="veh_998" x="115.60" y="49.61" speed="16.46" type="passenger"/>
        <vehicle id="veh_1007" x="134.32" y="49.90" speed="14.58" type="passenger"/>
        <vehicle id="veh_1016" x="153.68" y="52.11" speed="15.05" type="passenger"/>
    </timestep>

    <!-- Timestep 1.70s -->
    <timestep time="1.70">
        <vehicle id="veh_962" x="35.50" y="49.81" speed="14.91" type="passenger"/>
        <vehicle id="veh_971" x="58.05" y="51.00" speed="15.69" type="passenger"/>
        <vehicle id="veh_980" x="74.65" y="47.13" speed="13.90" type="passenger"/>
        <vehicle id="veh_989" x="96.35" y="51.87" speed="16.00" type="passenger"/>
        <vehicle id="veh_998" x="117.20" y="49.59" speed="16.42" type="passenger"/>
        <vehicle id="veh_1007" x="135.84" y="49.88" speed="14.56" type="passenger"/>
        <vehicle id="veh_1016" x="155.16" y="52.09" speed="15.01" type="passenger"/>
    </timestep>

    <!-- Timestep 1.80s -->
    <timestep time="1.80">
        <vehicle id="veh_962" x="37.00" y="49.84" speed="14.95" type="passenger"/>
        <vehicle id="veh_971" x="59.70" y="51.01" speed="15.70" type="passenger"/>
        <vehicle id="veh_980" x="76.10" y="47.14" speed="13.92" type="passenger"/>
        <vehicle id="veh_989" x="97.90" y="51.85" speed="15.97" type="passenger"/>
        <vehicle id="veh_998" x="118.80" y="49.57" speed="16.39" type="passenger"/>
        <vehicle id="veh_1007" x="137.36" y="49.86" speed="14.54" type="passenger"/>
        <vehicle id="veh_1016" x="156.64" y="52.07" speed="14.98" type="passenger"/>
    </timestep>

    <!-- Timestep 1.90s -->
    <timestep time="1.90">
        <vehicle id="veh_962" x="38.50" y="49.87" speed="14.99" type="passenger"/>
        <vehicle id="veh_971" x="61.35" y="51.01" speed="15.71" type="passenger"/>
        <vehicle id="veh_980" x="77.55" y="47.16" speed="13.94" type="passenger"/>
        <vehicle id="veh_989" x="99.45" y="51.83" speed="15.94" type="passenger"/>
        <vehicle id="veh_998" x="120.40" y="49.54" speed="16.35" type="passenger"/>
        <vehicle id="veh_1007" x="138.88" y="49.83" speed="14.52" type="passenger"/>
        <vehicle id="veh_1016" x="158.12" y="52.04" speed="14.94" type="passenger"/>
    </timestep>

    <!-- Timestep 2.00s -->
    <timestep time="2.00">
        <vehicle id="veh_962" x="40.00" y="49.90" speed="15.03" type="passenger"/>
        <vehicle id="veh_971" x="63.00" y="51.02" speed="15.72" type="passenger"/>
        <vehicle id="veh_980" x="79.00" y="47.18" speed="13.96" type="passenger"/>
        <vehicle id="veh_989" x="101.00" y="51.82" speed="15.91" type="passenger"/>
        <vehicle id="veh_998" x="122.00" y="49.52" speed="16.32" type="passenger"/>
        <vehicle id="veh_1007" x="140.40" y="49.81" speed="14.50" type="passenger"/>
        <vehicle id="veh_1016" x="159.60" y="52.02" speed="14.90" type="passenger"/>
    </timestep>

    <!-- Timestep 2.10s -->
    <timestep time="2.10">
        <vehicle id="veh_962" x="41.50" y="49.93" speed="15.06" type="passenger"/>
        <vehicle id="veh_971" x="64.65" y="51.02" speed="15.73" type="passenger"/>
        <vehicle id="veh_980" x="80.45" y="47.19" speed="13.99" type="passenger"/>
        <vehicle id="veh_989" x="102.55" y="51.80" speed="15.88" type="passenger"/>
        <vehicle id="veh_998" x="123.60" y="49.49" speed="16.28" type="passenger"/>
        <vehicle id="veh_1007" x="141.92" y="49.79" speed="14.49" type="passenger"/>
        <vehicle id="veh_1016" x="161.08" y="51.99" speed="14.87" type="passenger"/>
    </timestep>

    <!-- Timestep 2.20s -->
    <timestep time="2.20">
        <vehicle id="veh_962" x="43.00" y="49.96" speed="15.10" type="passenger"/>
        <vehicle id="veh_971" x="66.30" y="51.03" speed="15.75" type="passenger"/>
        <vehicle id="veh_980" x="81.90" y="47.21" speed="14.02" type="passenger"/>
        <vehicle id="veh_989" x="104.10" y="51.78" speed="15.84" type="passenger"/>
        <vehicle id="veh_998" x="125.20" y="49.46" speed="16.24" type="passenger"/>
        <vehicle id="veh_1007" x="143.44" y="49.77" speed="14.48" type="passenger"/>
        <vehicle id="veh_1016" x="162.56" y="51.96" speed="14.83" type="passenger"/>
    </timestep>

    <!-- Timestep 2.30s -->
    <timestep time="2.30">
        <vehicle id="veh_962" x="44.50" y="49.99" speed="15.14" type="passenger"/>
        <vehicle id="veh_971" x="67.95" y="51.04" speed="15.77" type="passenger"/>
        <vehicle id="veh_980" x="83.35" y="47.23" speed="14.04" type="passenger"/>
        <vehicle id="veh_989" x="105.65" y="51.76" speed="15.81" type="passenger"/>
        <vehicle id="veh_998" x="126.80" y="49.44" speed="16.20" type="passenger"/>
        <vehicle id="veh_1007" x="144.96" y="49.75" speed="14.47" type="passenger"/>
        <vehicle id="veh_1016" x="164.04" y="51.94" speed="14.79" type="passenger"/>
    </timestep>

    <!-- Timestep 2.40s -->
    <timestep time="2.40">
        <vehicle id="veh_962" x="46.00" y="50.02" speed="15.17" type="passenger"/>
        <vehicle id="veh_971" x="69.60" y="51.05" speed="15.79" type="passenger"/>
        <vehicle id="veh_980" x="84.80" y="47.25" speed="14.07" type="passenger"/>
        <vehicle id="veh_989" x="107.20" y="51.74" speed="15.77" type="passenger"/>
        <vehicle id="veh_998" x="128.40" y="49.41" speed="16.16" type="passenger"/>
        <vehicle id="veh_1007" x="146.48" y="49.73" speed="14.46" type="passenger"/>
        <vehicle id="veh_1016" x="165.52" y="51.91" speed="14.76" type="passenger"/>
    </timestep>

    <!-- Timestep 2.50s -->
    <timestep time="2.50">
        <vehicle id="veh_962" x="47.50" y="50.05" speed="15.21" type="passenger"/>
        <vehicle id="veh_971" x="71.25" y="51.06" speed="15.81" type="passenger"/>
        <vehicle id="veh_980" x="86.25" y="47.27" speed="14.10" type="passenger"/>
        <vehicle id="veh_989" x="108.75" y="51.72" speed="15.73" type="passenger"/>
        <vehicle id="veh_998" x="130.00" y="49.38" speed="16.13" type="passenger"/>
        <vehicle id="veh_1007" x="148.00" y="49.71" speed="14.45" type="passenger"/>
        <vehicle id="veh_1016" x="167.00" y="51.88" speed="14.72" type="passenger"/>
    </timestep>

    <!-- Timestep 2.60s -->
    <timestep time="2.60">
        <vehicle id="veh_962" x="49.00" y="50.08" speed="15.25" type="passenger"/>
        <vehicle id="veh_971" x="72.90" y="51.07" speed="15.83" type="passenger"/>
        <vehicle id="veh_980" x="87.70" y="47.29" speed="14.13" type="passenger"/>
        <vehicle id="veh_989" x="110.30" y="51.70" speed="15.70" type="passenger"/>
        <vehicle id="veh_998" x="131.60" y="49.35" speed="16.09" type="passenger"/>
        <vehicle id="veh_1007" x="149.52" y="49.69" speed="14.44" type="passenger"/>
        <vehicle id="veh_1016" x="168.48" y="51.85" speed="14.68" type="passenger"/>
    </timestep>

    <!-- Timestep 2.70s -->
    <timestep time="2.70">
        <vehicle id="veh_962" x="50.50" y="50.11" speed="15.28" type="passenger"/>
        <vehicle id="veh_971" x="74.55" y="51.08" speed="15.85" type="passenger"/>
        <vehicle id="veh_980" x="89.15" y="47.31" speed="14.16" type="passenger"/>
        <vehicle id="veh_989" x="111.85" y="51.68" speed="15.66" type="passenger"/>
        <vehicle id="veh_998" x="133.20" y="49.33" speed="16.05" type="passenger"/>
        <vehicle id="veh_1007" x="151.04" y="49.68" speed="14.44" type="passenger"/>
        <vehicle id="veh_1016" x="169.96" y="51.83" speed="14.65" type="passenger"/>
    </timestep>

    <!-- Timestep 2.80s -->
    <timestep time="2.80">
        <vehicle id="veh_962" x="52.00" y="50.14" speed="15.32" type="passenger"/>
        <vehicle id="veh_971" x="76.20" y="51.09" speed="15.88" type="passenger"/>
        <vehicle id="veh_980" x="90.60" y="47.34" speed="14.20" type="passenger"/>
        <vehicle id="veh_989" x="113.40" y="51.66" speed="15.62" type="passenger"/>
        <vehicle id="veh_998" x="134.80" y="49.30" speed="16.01" type="passenger"/>
        <vehicle id="veh_1007" x="152.56" y="49.66" speed="14.44" type="passenger"/>
        <vehicle id="veh_1016" x="171.44" y="51.80" speed="14.61" type="passenger"/>
    </timestep>

    <!-- Timestep 2.90s -->
    <timestep time="2.90">
        <vehicle id="veh_962" x="53.50" y="50.17" speed="15.35" type="passenger"/>
        <vehicle id="veh_971" x="77.85" y="51.10" speed="15.91" type="passenger"/>
        <vehicle id="veh_980" x="92.05" y="47.36" speed="14.23" type="passenger"/>
        <vehicle id="veh_989" x="114.95" y="51.63" speed="15.58" type="passenger"/>
        <vehicle id="veh_998" x="136.40" y="49.27" speed="15.97" type="passenger"/>
        <vehicle id="veh_1007" x="154.08" y="49.64" speed="14.44" type="passenger"/>
        <vehicle id="veh_1016" x="172.92" y="51.77" speed="14.58" type="passenger"/>
    </timestep>

    <!-- Timestep 3.00s -->
    <timestep time="3.00">
        <vehicle id="veh_962" x="55.00" y="50.20" speed="15.38" type="passenger"/>
        <vehicle id="veh_971" x="79.50" y="51.12" speed="15.94" type="passenger"/>
        <vehicle id="veh_980" x="93.50" y="47.38" speed="14.26" type="passenger"/>
        <vehicle id="veh_989" x="116.50" y="51.61" speed="15.54" type="passenger"/>
        <vehicle id="veh_998" x="138.00" y="49.24" speed="15.93" type="passenger"/>
        <vehicle id="veh_1007" x="155.60" y="49.63" speed="14.44" type="passenger"/>
        <vehicle id="veh_1016" x="174.40" y="51.74" speed="14.54" type="passenger"/>
    </timestep>

    <!-- Timestep 3.10s -->
    <timestep time="3.10">
        <vehicle id="veh_962" x="56.50" y="50.23" speed="15.41" type="passenger"/>
        <vehicle id="veh_971" x="81.15" y="51.13" speed="15.97" type="passenger"/>
        <vehicle id="veh_980" x="94.95" y="47.41" speed="14.30" type="passenger"/>
        <vehicle id="veh_989" x="118.05" y="51.59" speed="15.51" type="passenger"/>
        <vehicle id="veh_998" x="139.60" y="49.21" speed="15.89" type="passenger"/>
        <vehicle id="veh_1007" x="157.12" y="49.61" speed="14.45" type="passenger"/>
        <vehicle id="veh_1016" x="175.88" y="51.71" speed="14.51" type="passenger"/>
    </timestep>

    <!-- Timestep 3.20s -->
    <timestep time="3.20">
        <vehicle id="veh_962" x="58.00" y="50.26" speed="15.45" type="passenger"/>
        <vehicle id="veh_971" x="82.80" y="51.15" speed="16.00" type="passenger"/>
        <vehicle id="veh_980" x="96.40" y="47.43" speed="14.33" type="passenger"/>
        <vehicle id="veh_989" x="119.60" y="51.56" speed="15.47" type="passenger"/>
        <vehicle id="veh_998" x="141.20" y="49.18" speed="15.85" type="passenger"/>
        <vehicle id="veh_1007" x="158.64" y="49.60" speed="14.45" type="passenger"/>
        <vehicle id="veh_1016" x="177.36" y="51.68" speed="14.47" type="passenger"/>
    </timestep>

    <!-- Timestep 3.30s -->
    <timestep time="3.30">
        <vehicle id="veh_962" x="59.50" y="50.29" speed="15.47" type="passenger"/>
        <vehicle id="veh_971" x="84.45" y="51.16" speed="16.04" type="passenger"/>
        <vehicle id="veh_980" x="97.85" y="47.46" speed="14.37" type="passenger"/>
        <vehicle id="veh_989" x="121.15" y="51.54" speed="15.43" type="passenger"/>
        <vehicle id="veh_998" x="142.80" y="49.15" speed="15.81" type="passenger"/>
        <vehicle id="veh_1007" x="160.16" y="49.59" speed="14.46" type="passenger"/>
        <vehicle id="veh_1016" x="178.84" y="51.65" speed="14.44" type="passenger"/>
    </timestep>

    <!-- Timestep 3.40s -->
    <timestep time="3.40">
        <vehicle id="veh_962" x="61.00" y="50.32" speed="15.50" type="passenger"/>
        <vehicle id="veh_971" x="86.10" y="51.18" speed="16.07" type="passenger"/>
        <vehicle id="veh_980" x="99.30" y="47.48" speed="14.40" type="passenger"/>
        <vehicle id="veh_989" x="122.70" y="51.51" speed="15.39" type="passenger"/>
        <vehicle id="veh_998" x="144.40" y="49.12" speed="15.77" type="passenger"/>
        <vehicle id="veh_1007" x="161.68" y="49.58" speed="14.47" type="passenger"/>
        <vehicle id="veh_1016" x="180.32" y="51.62" speed="14.41" type="passenger"/>
    </timestep>

    <!-- Timestep 3.50s -->
    <timestep time="3.50">
        <vehicle id="veh_962" x="62.50" y="50.34" speed="15.53" type="passenger"/>
        <vehicle id="veh_971" x="87.75" y="51.20" speed="16.11" type="passenger"/>
        <vehicle id="veh_980" x="100.75" y="47.51" speed="14.44" type="passenger"/>
        <vehicle id="veh_989" x="124.25" y="51.49" speed="15.35" type="passenger"/>
        <vehicle id="veh_998" x="146.00" y="49.09" speed="15.73" type="passenger"/>
        <vehicle id="veh_1007" x="163.20" y="49.56" speed="14.48" type="passenger"/>
        <vehicle id="veh_1016" x="181.80" y="51.59" speed="14.38" type="passenger"/>
    </timestep>

    <!-- Timestep 3.60s -->
    <timestep time="3.60">
        <vehicle id="veh_962" x="64.00" y="50.37" speed="15.56" type="passenger"/>
        <vehicle id="veh_971" x="89.40" y="51.22" speed="16.14" type="passenger"/>
        <vehicle id="veh_980" x="102.20" y="47.53" speed="14.48" type="passenger"/>
        <vehicle id="veh_989" x="125.80" y="51.46" speed="15.31" type="passenger"/>
        <vehicle id="veh_998" x="147.60" y="49.06" speed="15.69" type="passenger"/>
        <vehicle id="veh_1007" x="164.72" y="49.55" speed="14.50" type="passenger"/>
        <vehicle id="veh_1016" x="183.28" y="51.56" speed="14.35" type="passenger"/>
    </timestep>

    <!-- Timestep 3.70s -->
    <timestep time="3.70">
        <vehicle id="veh_962" x="65.50" y="50.40" speed="15.58" type="passenger"/>
        <vehicle id="veh_971" x="91.05" y="51.23" speed="16.18" type="passenger"/>
        <vehicle id="veh_980" x="103.65" y="47.56" speed="14.51" type="passenger"/>
        <vehicle id="veh_989" x="127.35" y="51.43" speed="15.28" type="passenger"/>
        <vehicle id="veh_998" x="149.20" y="49.03" speed="15.66" type="passenger"/>
        <vehicle id="veh_1007" x="166.24" y="49.55" speed="14.51" type="passenger"/>
        <vehicle id="veh_1016" x="184.76" y="51.53" speed="14.32" type="passenger"/>
    </timestep>

    <!-- Timestep 3.80s -->
    <timestep time="3.80">
        <vehicle id="veh_962" x="67.00" y="50.43" speed="15.60" type="passenger"/>
        <vehicle id="veh_971" x="92.70" y="51.25" speed="16.22" type="passenger"/>
        <vehicle id="veh_980" x="105.10" y="47.59" speed="14.55" type="passenger"/>
        <vehicle id="veh_989" x="128.90" y="51.41" speed="15.24" type="passenger"/>
        <vehicle id="veh_998" x="150.80" y="49.00" speed="15.62" type="passenger"/>
        <vehicle id="veh_1007" x="167.76" y="49.54" speed="14.53" type="passenger"/>
        <vehicle id="veh_1016" x="186.24" y="51.50" speed="14.29" type="passenger"/>
    </timestep>

    <!-- Timestep 3.90s -->
    <timestep time="3.90">
        <vehicle id="veh_962" x="68.50" y="50.45" speed="15.63" type="passenger"/>
        <vehicle id="veh_971" x="94.35" y="51.27" speed="16.26" type="passenger"/>
        <vehicle id="veh_980" x="106.55" y="47.61" speed="14.59" type="passenger"/>
        <vehicle id="veh_989" x="130.45" y="51.38" speed="15.20" type="passenger"/>
        <vehicle id="veh_998" x="152.40" y="48.97" speed="15.59" type="passenger"/>
        <vehicle id="veh_1007" x="169.28" y="49.53" speed="14.55" type="passenger"/>
        <vehicle id="veh_1016" x="187.72" y="51.47" speed="14.26" type="passenger"/>
    </timestep>

    <!-- Timestep 4.00s -->
    <timestep time="4.00">
        <vehicle id="veh_962" x="70.00" y="50.48" speed="15.65" type="passenger"/>
        <vehicle id="veh_971" x="96.00" y="51.30" speed="16.30" type="passenger"/>
        <vehicle id="veh_980" x="108.00" y="47.64" speed="14.62" type="passenger"/>
        <vehicle id="veh_989" x="132.00" y="51.35" speed="15.17" type="passenger"/>
        <vehicle id="veh_998" x="154.00" y="48.94" speed="15.55" type="passenger"/>
        <vehicle id="veh_1007" x="170.80" y="49.52" speed="14.57" type="passenger"/>
        <vehicle id="veh_1016" x="189.20" y="51.44" speed="14.24" type="passenger"/>
    </timestep>

    <!-- Timestep 4.10s -->
    <timestep time="4.10">
        <vehicle id="veh_962" x="71.50" y="50.51" speed="15.66" type="passenger"/>
        <vehicle id="veh_971" x="97.65" y="51.32" speed="16.34" type="passenger"/>
        <vehicle id="veh_980" x="109.45" y="47.67" speed="14.66" type="passenger"/>
        <vehicle id="veh_989" x="133.55" y="51.32" speed="15.13" type="passenger"/>
        <vehicle id="veh_998" x="155.60" y="48.91" speed="15.52" type="passenger"/>
        <vehicle id="veh_1007" x="172.32" y="49.52" speed="14.59" type="passenger"/>
        <vehicle id="veh_1016" x="190.68" y="51.41" speed="14.22" type="passenger"/>
    </timestep>

    <!-- Timestep 4.20s -->
    <timestep time="4.20">
        <vehicle id="veh_962" x="73.00" y="50.53" speed="15.68" type="passenger"/>
        <vehicle id="veh_971" x="99.30" y="51.34" speed="16.38" type="passenger"/>
        <vehicle id="veh_980" x="110.90" y="47.70" speed="14.69" type="passenger"/>
        <vehicle id="veh_989" x="135.10" y="51.29" speed="15.10" type="passenger"/>
        <vehicle id="veh_998" x="157.20" y="48.88" speed="15.49" type="passenger"/>
        <vehicle id="veh_1007" x="173.84" y="49.51" speed="14.61" type="passenger"/>
        <vehicle id="veh_1016" x="192.16" y="51.38" speed="14.19" type="passenger"/>
    </timestep>

    <!-- Timestep 4.30s -->
    <timestep time="4.30">
        <vehicle id="veh_962" x="74.50" y="50.56" speed="15.69" type="passenger"/>
        <vehicle id="veh_971" x="100.95" y="51.36" speed="16.42" type="passenger"/>
        <vehicle id="veh_980" x="112.35" y="47.73" speed="14.73" type="passenger"/>
        <vehicle id="veh_989" x="136.65" y="51.26" speed="15.07" type="passenger"/>
        <vehicle id="veh_998" x="158.80" y="48.85" speed="15.46" type="passenger"/>
        <vehicle id="veh_1007" x="175.36" y="49.51" speed="14.64" type="passenger"/>
        <vehicle id="veh_1016" x="193.64" y="51.35" speed="14.17" type="passenger"/>
    </timestep>

    <!-- Timestep 4.40s -->
    <timestep time="4.40">
        <vehicle id="veh_962" x="76.00" y="50.58" speed="15.71" type="passenger"/>
        <vehicle id="veh_971" x="102.60" y="51.39" speed="16.46" type="passenger"/>
        <vehicle id="veh_980" x="113.80" y="47.76" speed="14.76" type="passenger"/>
        <vehicle id="veh_989" x="138.20" y="51.24" speed="15.04" type="passenger"/>
        <vehicle id="veh_998" x="160.40" y="48.82" speed="15.43" type="passenger"/>
        <vehicle id="veh_1007" x="176.88" y="49.50" speed="14.66" type="passenger"/>
        <vehicle id="veh_1016" x="195.12" y="51.32" speed="14.16" type="passenger"/>
    </timestep>

    <!-- Timestep 4.50s -->
    <timestep time="4.50">